 &FCI NORB= 36,NELEC= 32,MS2= 0,
  ORBSYM=1,1,1,1,1,1,1,1,1,1,1,1,1,1,1,1,1,1,1,1,1,1,1,1,1,1,1,1,1,1,1,1,1,1,1,1,
  ISYM=1,
 &END
  8.0000000000000000   1   1   1   1
  8.0000000000000000   2   2   2   2
  8.0000000000000000   3   3   3   3
  8.0000000000000000   4   4   4   4
  8.0000000000000000   5   5   5   5
  8.0000000000000000   6   6   6   6
  8.0000000000000000   7   7   7   7
  8.0000000000000000   8   8   8   8
  8.0000000000000000   9   9   9   9
  8.0000000000000000  10  10  10  10
  8.0000000000000000  11  11  11  11
  8.0000000000000000  12  12  12  12
  8.0000000000000000  13  13  13  13
  8.0000000000000000  14  14  14  14
  8.0000000000000000  15  15  15  15
  8.0000000000000000  16  16  16  16
  8.0000000000000000  17  17  17  17
  8.0000000000000000  18  18  18  18
  8.0000000000000000  19  19  19  19
  8.0000000000000000  20  20  20  20
  8.0000000000000000  21  21  21  21
  8.0000000000000000  22  22  22  22
  8.0000000000000000  23  23  23  23
  8.0000000000000000  24  24  24  24
  8.0000000000000000  25  25  25  25
  8.0000000000000000  26  26  26  26
  8.0000000000000000  27  27  27  27
  8.0000000000000000  28  28  28  28
  8.0000000000000000  29  29  29  29
  8.0000000000000000  30  30  30  30
  8.0000000000000000  31  31  31  31
  8.0000000000000000  32  32  32  32
  8.0000000000000000  33  33  33  33
  8.0000000000000000  34  34  34  34
  8.0000000000000000  35  35  35  35
  8.0000000000000000  36  36  36  36
 -1.0000000000000000   2   1   0   0
 -1.0000000000000000   3   2   0   0
 -1.0000000000000000   4   3   0   0
 -1.0000000000000000   5   4   0   0
 -1.0000000000000000   6   1   0   0
 -1.0000000000000000   6   5   0   0
 -1.0000000000000000   7   1   0   0
 -1.0000000000000000   8   2   0   0
 -1.0000000000000000   8   7   0   0
 -1.0000000000000000   9   3   0   0
 -1.0000000000000000   9   8   0   0
 -1.0000000000000000  10   4   0   0
 -1.0000000000000000  10   9   0   0
 -1.0000000000000000  11   5   0   0
 -1.0000000000000000  11  10   0   0
 -1.0000000000000000  12   6   0   0
 -1.0000000000000000  12   7   0   0
 -1.0000000000000000  12  11   0   0
 -1.0000000000000000  13   7   0   0
 -1.0000000000000000  14   8   0   0
 -1.0000000000000000  14  13   0   0
 -1.0000000000000000  15   9   0   0
 -1.0000000000000000  15  14   0   0
 -1.0000000000000000  16  10   0   0
 -1.0000000000000000  16  15   0   0
 -1.0000000000000000  17  11   0   0
 -1.0000000000000000  17  16   0   0
 -1.0000000000000000  18  12   0   0
 -1.0000000000000000  18  13   0   0
 -1.0000000000000000  18  17   0   0
 -1.0000000000000000  19  13   0   0
 -1.0000000000000000  20  14   0   0
 -1.0000000000000000  20  19   0   0
 -1.0000000000000000  21  15   0   0
 -1.0000000000000000  21  20   0   0
 -1.0000000000000000  22  16   0   0
 -1.0000000000000000  22  21   0   0
 -1.0000000000000000  23  17   0   0
 -1.0000000000000000  23  22   0   0
 -1.0000000000000000  24  18   0   0
 -1.0000000000000000  24  19   0   0
 -1.0000000000000000  24  23   0   0
 -1.0000000000000000  25  19   0   0
 -1.0000000000000000  26  20   0   0
 -1.0000000000000000  26  25   0   0
 -1.0000000000000000  27  21   0   0
 -1.0000000000000000  27  26   0   0
 -1.0000000000000000  28  22   0   0
 -1.0000000000000000  28  27   0   0
 -1.0000000000000000  29  23   0   0
 -1.0000000000000000  29  28   0   0
 -1.0000000000000000  30  24   0   0
 -1.0000000000000000  30  25   0   0
 -1.0000000000000000  30  29   0   0
 -1.0000000000000000  31   1   0   0
 -1.0000000000000000  31  25   0   0
 -1.0000000000000000  32   2   0   0
 -1.0000000000000000  32  26   0   0
 -1.0000000000000000  32  31   0   0
 -1.0000000000000000  33   3   0   0
 -1.0000000000000000  33  27   0   0
 -1.0000000000000000  33  32   0   0
 -1.0000000000000000  34   4   0   0
 -1.0000000000000000  34  28   0   0
 -1.0000000000000000  34  33   0   0
 -1.0000000000000000  35   5   0   0
 -1.0000000000000000  35  29   0   0
 -1.0000000000000000  35  34   0   0
 -1.0000000000000000  36   6   0   0
 -1.0000000000000000  36  30   0   0
 -1.0000000000000000  36  31   0   0
 -1.0000000000000000  36  35   0   0
  0.0000000000000000   0   0   0   0
